============================== echo of input deck ==============================
echo

start profile

permanent_dir /tmp
scratch_dir /tmp

memory stack 2000 mb heap 180 mb global 1000 mb noverify

geometry noautosym noautoz
  C     1.170639    1.170639    1.170639
  C     1.894104    0.000000    0.723495
  C    -1.170639   -1.170639    1.170639
  C     1.170639   -1.170639    1.170639
  C    -1.170639    1.170639    1.170639
  C     0.000000   -0.723495    1.894104
  C     0.723495    1.894104    0.000000
  C     0.000000    0.723495    1.894104
  C     1.894104    0.000000   -0.723495
  C     0.723495   -1.894104    0.000000
  C    -1.894104    0.000000    0.723495
  C    -0.723495    1.894104    0.000000
  C     1.170639    1.170639   -1.170639
  C     1.170639   -1.170639   -1.170639
  C    -0.723495   -1.894104    0.000000
  C    -1.894104    0.000000   -0.723495
  C    -1.170639    1.170639   -1.170639
  C     0.000000    0.723495   -1.894104
  C     0.000000   -0.723495   -1.894104
  C    -1.170639   -1.170639   -1.170639
end

basis dz spherical
  * library 6-31G
end

basis pvdz spherical
  * library cc-pvdz
end

basis pvtz spherical
  * library cc-pvtz
end

set "ao basis" dz

scf
  rhf
  singlet
  thresh 1.0e-7
  direct
end

dft
  xc b3lyp
  direct
end

task scf energy
================================================================================

 Output coordinates in angstroms (scale by  1.889725989 to convert to a.u.)

  No.       Tag          Charge          X              Y              Z
 ---- ---------------- ---------- -------------- -------------- --------------
    1 C                    6.0000     1.17063900     1.17063900     1.17063900
    2 C                    6.0000     1.89410400     0.00000000     0.72349500
    3 C                    6.0000    -1.17063900    -1.17063900     1.17063900
    4 C                    6.0000     1.17063900    -1.17063900     1.17063900
    5 C                    6.0000    -1.17063900     1.17063900     1.17063900
    6 C                    6.0000     0.00000000    -0.72349500     1.89410400
    7 C                    6.0000     0.72349500     1.89410400     0.00000000
    8 C                    6.0000     0.00000000     0.72349500     1.89410400
    9 C                    6.0000     1.89410400     0.00000000    -0.72349500
   10 C                    6.0000     0.72349500    -1.89410400     0.00000000
   11 C                    6.0000    -1.89410400     0.00000000     0.72349500
   12 C                    6.0000    -0.72349500     1.89410400     0.00000000
   13 C                    6.0000     1.17063900     1.17063900    -1.17063900
   14 C                    6.0000     1.17063900    -1.17063900    -1.17063900
   15 C                    6.0000    -0.72349500    -1.89410400     0.00000000
   16 C                    6.0000    -1.89410400     0.00000000    -0.72349500
   17 C                    6.0000    -1.17063900     1.17063900    -1.17063900
   18 C                    6.0000     0.00000000     0.72349500    -1.89410400
   19 C                    6.0000     0.00000000    -0.72349500    -1.89410400
   20 C                    6.0000    -1.17063900    -1.17063900    -1.17063900

         Total SCF energy =   -756.156525098050

 Vector   21  Occ=2.000000D+00  E=-1.381493D+00

 Vector   22  Occ=2.000000D+00  E=-1.274050D+00

 Vector   23  Occ=2.000000D+00  E=-1.274050D+00

 Vector   24  Occ=2.000000D+00  E=-1.274050D+00

 Vector   25  Occ=2.000000D+00  E=-1.101629D+00

 Vector   26  Occ=2.000000D+00  E=-1.101629D+00

 Vector   27  Occ=2.000000D+00  E=-1.093384D+00

 Vector   28  Occ=2.000000D+00  E=-1.093384D+00

 Vector   29  Occ=2.000000D+00  E=-1.093384D+00

 Vector   30  Occ=2.000000D+00  E=-9.035467D-01

 Vector   31  Occ=2.000000D+00  E=-9.035467D-01

 Vector   32  Occ=2.000000D+00  E=-9.035467D-01

 Vector   33  Occ=2.000000D+00  E=-9.000775D-01

 Vector   34  Occ=2.000000D+00  E=-8.459574D-01

 Vector   35  Occ=2.000000D+00  E=-8.459574D-01

 Vector   36  Occ=2.000000D+00  E=-8.459574D-01

 Vector   37  Occ=2.000000D+00  E=-7.001026D-01

 Vector   38  Occ=2.000000D+00  E=-6.879499D-01

 Vector   39  Occ=2.000000D+00  E=-6.879499D-01

 Vector   40  Occ=2.000000D+00  E=-6.879499D-01

 Vector   41  Occ=2.000000D+00  E=-6.643527D-01

 Vector   42  Occ=2.000000D+00  E=-6.258936D-01

 Vector   43  Occ=2.000000D+00  E=-6.258936D-01

 Vector   44  Occ=2.000000D+00  E=-6.187174D-01

 Vector   45  Occ=2.000000D+00  E=-6.187174D-01

 Vector   46  Occ=2.000000D+00  E=-6.187174D-01

 Vector   47  Occ=2.000000D+00  E=-5.525427D-01

 Vector   48  Occ=2.000000D+00  E=-5.525427D-01

 Vector   49  Occ=2.000000D+00  E=-5.525427D-01

 Vector   50  Occ=2.000000D+00  E=-5.375600D-01

 Vector   51  Occ=2.000000D+00  E=-5.375600D-01

 Vector   52  Occ=2.000000D+00  E=-5.375600D-01

 Vector   53  Occ=2.000000D+00  E=-5.296404D-01

 Vector   54  Occ=2.000000D+00  E=-5.296404D-01

 Vector   55  Occ=2.000000D+00  E=-3.621706D-01

 Vector   56  Occ=2.000000D+00  E=-3.621706D-01

 Vector   57  Occ=2.000000D+00  E=-3.621706D-01

 Vector   58  Occ=2.000000D+00  E=-3.406266D-01

 Vector   59  Occ=2.000000D+00  E=-3.406266D-01

 Vector   60  Occ=2.000000D+00  E=-2.252253D-01

 Vector   61  Occ=0.000000D+00  E=-4.088284D-02

 Vector   62  Occ=0.000000D+00  E=-4.088284D-02

 Vector   63  Occ=0.000000D+00  E=-4.088284D-02

 Vector   64  Occ=0.000000D+00  E= 8.457264D-02

 Vector   65  Occ=0.000000D+00  E= 8.457264D-02

 Vector   66  Occ=0.000000D+00  E= 8.457264D-02

 Vector   67  Occ=0.000000D+00  E= 1.302990D-01

 Vector   68  Occ=0.000000D+00  E= 1.302990D-01

 Vector   69  Occ=0.000000D+00  E= 1.302990D-01

 Vector   70  Occ=0.000000D+00  E= 1.339213D-01

 Vector   71  Occ=0.000000D+00  E= 2.443957D-01

 Vector   72  Occ=0.000000D+00  E= 2.443957D-01

 Vector   73  Occ=0.000000D+00  E= 2.443957D-01

 Vector   74  Occ=0.000000D+00  E= 3.780267D-01

 Vector   75  Occ=0.000000D+00  E= 3.780267D-01

 Vector   76  Occ=0.000000D+00  E= 3.780267D-01

 Vector   77  Occ=0.000000D+00  E= 3.872383D-01

 Vector   78  Occ=0.000000D+00  E= 3.872383D-01

 Vector   79  Occ=0.000000D+00  E= 3.872383D-01

 Vector   80  Occ=0.000000D+00  E= 3.949579D-01

 Vector   81  Occ=0.000000D+00  E= 3.949579D-01

 Vector   82  Occ=0.000000D+00  E= 3.954923D-01

 Vector   83  Occ=0.000000D+00  E= 3.954923D-01

 Vector   84  Occ=0.000000D+00  E= 3.954923D-01

 Vector   85  Occ=0.000000D+00  E= 5.322879D-01

       Multipole analysis of the density wrt the origin
       ------------------------------------------------

     L   x y z        total         open         nuclear
     -   - - -        -----         ----         -------
     0   0 0 0     -0.000000      0.000000    120.000000

     1   1 0 0     -0.000000      0.000000      0.000000
     1   0 1 0     -0.000000      0.000000      0.000000
     1   0 0 1     -0.000000      0.000000      0.000000

     2   2 0 0    -87.309284      0.000000    587.242926
     2   1 1 0      0.000000      0.000000      0.000000
     2   1 0 1      0.000000      0.000000      0.000000
     2   0 2 0    -87.309284      0.000000    587.242926
     2   0 1 1      0.000000      0.000000      0.000000

 Total times  cpu:      770.1s     wall:      719.4s
